   * xtb version 6.6.1 (8d0f1dd) compiled by 'stahn@M-Bot' on 2023-08-01
          program call               : /home/echo/Downloads/xtb-661/bin/xtb rct_1_0.xyz --opt --gfn 2 --charge 0

   ID    Z sym.   atoms
    1   35 Br     1
    2    6 C      2, 3, 5-19
    3    8 O      4
    4    1 H      20-32

          :  Hamiltonian                  GFN2-xTB          :
 * total energy  :   -51.1492940 Eh     change       -0.8935217E-09 Eh
 * total energy  :   -51.1642035 Eh     change       -0.1490947E-01 Eh
 * total energy  :   -51.1667446 Eh     change       -0.2541153E-02 Eh
 * total energy  :   -51.1671389 Eh     change       -0.3943325E-03 Eh
 * total energy  :   -51.1672440 Eh     change       -0.1050600E-03 Eh
 * total energy  :   -51.1672709 Eh     change       -0.2690465E-04 Eh
 * total energy  :   -51.1672865 Eh     change       -0.1562990E-04 Eh
 * total energy  :   -51.1672987 Eh     change       -0.1217488E-04 Eh
 * total energy  :   -51.1673094 Eh     change       -0.1070823E-04 Eh
 * total energy  :   -51.1673174 Eh     change       -0.7989860E-05 Eh
 * total energy  :   -51.1673228 Eh     change       -0.5405599E-05 Eh
 * total energy  :   -51.1673262 Eh     change       -0.3336351E-05 Eh
   *** GEOMETRY OPTIMIZATION CONVERGED AFTER 12 ITERATIONS ***

 final structure:
================
32
 xtb: 6.6.1 (8d0f1dd)
Br           0.55279915312186       -2.49158214310299        1.22416745975169
C            1.41545299579347       -0.97486657139944        0.47220260932040
C            0.58941348219547       -0.00512896678313       -0.06360707901688
O           -0.73990922955863       -0.24541458350687        0.00793512614494
C           -1.64595436381025        0.69927885568900       -0.51040040729129
C           -3.06308550016942        0.22034888585299       -0.31447537302214
C           -3.34894933987313       -0.99370296824281        0.29053397246670
C           -4.66479979947735       -1.39544936457540        0.45058010126017
C           -5.69986942835490       -0.59090476811640        0.00929858767270
C           -5.41725299734521        0.62299994570237       -0.59578049152911
C           -4.10532903378822        1.02676946480017       -0.75693691921951
C            1.17559130948149        1.14051055340964       -0.63460210309248
C            2.53499320882268        1.28286642230850       -0.65466207726995
C            3.38693460105481        0.30269094860204       -0.11216602938179
C            4.79004712146541        0.44221996963510       -0.12877060906238
C            5.59756293259994       -0.52200532932432        0.40435793523060
C            5.03471993847418       -1.67183466476314        0.97935590390253
C            3.67927288619666       -1.84081642721355        1.01271714753155
C            2.81811099188285       -0.86430010048195        0.47088712984193
H           -1.51808216646339        1.66694570464327       -0.00027287499707
H           -1.46186849176974        0.85141283216124       -1.58554406177403
H           -2.54381527054618       -1.62229192782790        0.63553423749825
H           -4.87836619934587       -2.34269685713930        0.92287657451027
H           -6.72513953473763       -0.90615593848889        0.13483361335897
H           -6.22045015926744        1.25631474902182       -0.94284611239252
H           -3.88447379475159        1.97419304431598       -1.22897268526313
H            0.54977217783644        1.90961488509925       -1.05855317920924
H            2.97433604832896        2.16568317286669       -1.09535901281296
H            5.21196011710519        1.33171891886608       -0.57403045928563
H            6.67099333939826       -0.40656272140008        0.38720070201163
H            5.68277763003717       -2.42717960857592        1.39798463104330
H            3.25260637546423       -2.72783441203198        1.45651474307444

          :  Hamiltonian                  GFN2-xTB          :
         :: total energy             -51.167326160140 Eh    ::
         :: gradient norm              0.000225799837 Eh/a0 ::
         :: HOMO-LUMO gap              2.770256195956 eV    ::
         :: SCC energy               -52.006070988113 Eh    ::
         :: -> dispersion             -0.036410402196 Eh    ::
         :: repulsion energy           0.839025663184 Eh    ::

    * Orbital Energies and Occupations

         #    Occupation            Energy/Eh            Energy/eV
      -------------------------------------------------------------
         1        2.0000           -0.8271309             -22.5074
       ...           ...                  ...                  ...
        35        2.0000           -0.4537423             -12.3470
        36        2.0000           -0.4509172             -12.2701
        37        2.0000           -0.4449247             -12.1070
        38        2.0000           -0.4368175             -11.8864
        39        2.0000           -0.4298499             -11.6968
        40        2.0000           -0.4278681             -11.6429
        41        2.0000           -0.4231647             -11.5149
        42        2.0000           -0.4099141             -11.1543
        43        2.0000           -0.4069354             -11.0733
        44        2.0000           -0.4059458             -11.0463
        45        2.0000           -0.4001442             -10.8885
        46        2.0000           -0.3991964             -10.8627
        47        2.0000           -0.3752818             -10.2119 (HOMO)
        48                         -0.2734768              -7.4417 (LUMO)
        49                         -0.2380586              -6.4779
        50                         -0.2267359              -6.1698
        51                         -0.2239519              -6.0940
        52                         -0.2034053              -5.5349
        53                         -0.1949151              -5.3039
        54                         -0.1563921              -4.2556
        55                         -0.0960977              -2.6150
        56                         -0.0736903              -2.0052
        57                          0.0000291               0.0008
        58                          0.0369446               1.0053
       ...                                ...                  ...
        94                          0.6901465              18.7798
      -------------------------------------------------------------
                  HL-Gap            0.1018050 Eh            2.7703 eV

     #   Z          covCN         q      C6AA      α(0)
     1  35 Br       1.095    -0.160   189.476    22.194
     2   6 C        2.915     0.043    27.046     8.528
     3   6 C        2.967     0.139    24.969     8.196
     4   8 O        1.718    -0.248    18.097     5.744
     5   6 C        3.699     0.086    19.303     6.283
     6   6 C        2.970     0.006    27.889     8.662
     7   6 C        2.922    -0.030    28.752     8.793
     8   6 C        2.921    -0.027    28.684     8.783
     9   6 C        2.920    -0.031    28.767     8.795
    10   6 C        2.920    -0.028    28.711     8.787
    11   6 C        2.925    -0.041    29.011     8.833
    12   6 C        2.916    -0.066    29.654     8.930
    13   6 C        2.918    -0.039    28.967     8.826
    14   6 C        2.988     0.004    27.915     8.667
    15   6 C        2.919    -0.032    28.801     8.801
    16   6 C        2.915    -0.029    28.731     8.790
    17   6 C        2.917    -0.027    28.666     8.780
    18   6 C        2.918    -0.032    28.790     8.799
    19   6 C        3.037     0.008    27.810     8.650
    20   1 H        0.923     0.034     2.531     2.488
    21   1 H        0.923     0.034     2.530     2.488
    22   1 H        0.926     0.062     2.179     2.308
    23   1 H        0.926     0.039     2.469     2.457
    24   1 H        0.926     0.034     2.532     2.488
    25   1 H        0.926     0.033     2.538     2.492
    26   1 H        0.925     0.025     2.658     2.549
    27   1 H        0.926     0.039     2.461     2.453
    28   1 H        0.926     0.042     2.418     2.431
    29   1 H        0.926     0.035     2.513     2.479
    30   1 H        0.926     0.035     2.519     2.482
    31   1 H        0.926     0.037     2.484     2.465
    32   1 H        0.926     0.055     2.261     2.351

Wiberg/Mayer (AO) data.
largest (>0.10) Wiberg bond orders for each atom

     #   Z sym  total        # sym  WBO       # sym  WBO       # sym  WBO
 ---------------------------------------------------------------------------
     1  35 Br   1.140 --     2 C    0.976
     2   6 C    3.930 --     3 C    1.412    19 C    1.281     1 Br   0.976
                            13 C    0.103
     3   6 C    3.940 --     2 C    1.412    12 C    1.269     4 O    1.080
     4   8 O    2.263 --     3 C    1.080     5 C    0.968
     5   6 C    3.944 --     6 C    0.997     4 O    0.968    20 H    0.956
                            21 H    0.956
     6   6 C    3.985 --     7 C    1.425    11 C    1.406     5 C    0.997
                             9 C    0.109
     7   6 C    3.990 --     8 C    1.434     6 C    1.425    22 H    0.965
                            10 C    0.110
     8   6 C    3.992 --     9 C    1.448     7 C    1.434    23 H    0.971
                            11 C    0.113
     9   6 C    3.993 --     8 C    1.448    10 C    1.431    24 H    0.971
                             6 C    0.109
    10   6 C    3.992 --    11 C    1.453     9 C    1.431    25 H    0.971
                             7 C    0.110
    11   6 C    3.991 --    10 C    1.453     6 C    1.406    26 H    0.970
                             8 C    0.113
    12   6 C    3.988 --    13 C    1.547     3 C    1.269    27 H    0.964
    13   6 C    3.991 --    12 C    1.547    14 C    1.284    28 H    0.967
                             2 C    0.103
    14   6 C    3.990 --    13 C    1.284    15 C    1.280    19 C    1.231
    15   6 C    3.988 --    16 C    1.556    14 C    1.280    29 H    0.968
                            18 C    0.118
    16   6 C    3.983 --    15 C    1.556    17 C    1.320    30 H    0.971
    17   6 C    3.992 --    18 C    1.555    16 C    1.320    31 H    0.971
    18   6 C    3.989 --    17 C    1.555    19 C    1.281    32 H    0.961
                            15 C    0.118
    19   6 C    3.988 --    18 C    1.281     2 C    1.281    14 C    1.231
    20   1 H    0.998 --     5 C    0.956
    21   1 H    0.998 --     5 C    0.956
    22   1 H    0.996 --     7 C    0.965
    23   1 H    0.998 --     8 C    0.971
    24   1 H    0.998 --     9 C    0.971
    25   1 H    0.999 --    10 C    0.971
    26   1 H    0.999 --    11 C    0.970
    27   1 H    0.998 --    12 C    0.964
    28   1 H    0.997 --    13 C    0.967
    29   1 H    0.998 --    15 C    0.968
    30   1 H    0.998 --    16 C    0.971
    31   1 H    0.998 --    17 C    0.971
    32   1 H    0.997 --    18 C    0.961
 ---------------------------------------------------------------------------

molecular dipole:
                 x           y           z       tot (Debye)
 q only:        0.130       0.743      -0.379
   full:        0.372       1.539      -0.780       4.486

           -------------------------------------------------
          | TOTAL ENERGY              -51.167326160140 Eh   |
          | GRADIENT NORM               0.000225799837 Eh/α |
          | HOMO-LUMO GAP               2.770256195956 eV   |
           -------------------------------------------------

 * finished run on 2024/03/26 at 15:20:32.199
