   * xtb version 6.6.1 (8d0f1dd) compiled by 'stahn@M-Bot' on 2023-08-01
          program call               : /home/echo/Downloads/xtb-661/bin/xtb lig_0.xyz --opt --gfn 2 --charge 0

   ID    Z sym.   atoms
    1    6 C      1-3, 5-7, 9-20, 24-27
    2    7 N      4
    3   15 P      8
    4   28 Ni     21
    5   16 S      22
    6    8 O      23
    7    1 H      28-57

          :  Hamiltonian                  GFN2-xTB          :
 * total energy  :   -79.7612035 Eh     change       -0.1479009E-08 Eh
 * total energy  :   -79.8385251 Eh     change       -0.7732161E-01 Eh
 * total energy  :   -79.8708964 Eh     change       -0.3237130E-01 Eh
 * total energy  :   -79.8861378 Eh     change       -0.1524134E-01 Eh
 * total energy  :   -79.8968095 Eh     change       -0.1067176E-01 Eh
 * total energy  :   -79.9054907 Eh     change       -0.8681179E-02 Eh
 * total energy  :   -79.9116884 Eh     change       -0.6197644E-02 Eh
 * total energy  :   -79.9172044 Eh     change       -0.5516013E-02 Eh
 * total energy  :   -79.9231203 Eh     change       -0.5915931E-02 Eh
 * total energy  :   -79.9286101 Eh     change       -0.5489775E-02 Eh
 * total energy  :   -79.9597261 Eh     change       -0.2733876E-04 Eh
 * total energy  :   -79.9597531 Eh     change       -0.2694953E-04 Eh
 * total energy  :   -79.9597783 Eh     change       -0.2523950E-04 Eh
 * total energy  :   -79.9598003 Eh     change       -0.2193056E-04 Eh
 * total energy  :   -79.9598177 Eh     change       -0.1740404E-04 Eh
 * total energy  :   -79.9598310 Eh     change       -0.1337802E-04 Eh
 * total energy  :   -79.9598412 Eh     change       -0.1015561E-04 Eh
 * total energy  :   -79.9598490 Eh     change       -0.7792021E-05 Eh
 * total energy  :   -79.9598517 Eh     change       -0.2671123E-05 Eh
   *** GEOMETRY OPTIMIZATION CONVERGED AFTER 152 ITERATIONS ***

 final structure:
================
57
 xtb: 6.6.1 (8d0f1dd)
C           -1.82539991808860        4.16336458024393        0.45809201605226
C           -1.80871347526427        3.10181351168366       -0.32566012954910
C           -2.74828950656121        1.94034056486660       -0.19649846296003
N           -2.09270909067086        0.69926552224928        0.17900938310630
C           -1.29440810960594        0.76108384578667        1.40214280531429
C           -1.58435780363098       -0.45215342108844        2.28448830879426
C            0.22432286274641        0.93104525219676        1.16574743966487
P            1.16062060564540       -0.65690297848404        0.83177012581775
C            2.58723832635325       -0.43274028592738        1.95429788301734
C            2.36525288573247       -0.17934674661310        3.30569684814418
C            3.42266736076806       -0.09921494342560        4.19154514224958
C            4.71937348661146       -0.29170313550118        3.74328247629110
C            4.94775840225561       -0.58054385979042        2.40812816476272
C            3.88987383394369       -0.66193440292165        1.52134311307413
C            1.93000302891809       -0.29276098777072       -0.79228533810605
C            2.62543191510546        0.86671575435290       -1.10600869575196
C            3.10386402692479        1.05288292544850       -2.39150931802521
C            2.89149319512060        0.08993763444164       -3.36450823395474
C            2.20573602766483       -1.07486786689254       -3.05706162333019
C            1.73051491953135       -1.26160078772311       -1.77372016787994
Ni          -0.40998440429515       -1.88824735539497       -0.21861094414968
S           -1.37551652239446       -0.19302291618806       -1.09083020853183
O           -1.27277706620235        0.69042897382848       -2.24318426069949
C           -2.75553871547319       -1.38365218469683       -1.54328142854252
C           -3.96605960654544       -0.69667383246594       -2.13619456504968
C           -2.03085060218394       -2.26590307822078       -2.55582538649407
C           -3.05730713771351       -2.19199978357978       -0.29222805114195
H           -2.55058286224822        4.27255538654691        1.24966045242093
H           -1.13068487371127        4.97719943473429        0.33622639329080
H           -1.08404646148659        2.99896463333381       -1.12178973491193
H           -3.53172615299686        2.15710990330150        0.54008093997908
H           -3.20957569919888        1.76205971776311       -1.16870960785504
H           -1.63364808400131        1.65826168257199        1.93583318298136
H           -2.64892117008771       -0.52617122611833        2.48986294283157
H           -1.24619922681954       -1.37510651340047        1.78333802793817
H           -1.05002793881800       -0.36034320026593        3.22721454619096
H            0.66176984757767        1.41719309753535        2.03992596990803
H            0.37029132786182        1.58584285981757        0.30435423181386
H            1.35402278889567       -0.04792404834369        3.66599509014466
H            3.23699140163032        0.10794494032627        5.23582293688358
H            5.54676542887466       -0.22761869152425        4.43443468050089
H            5.95605026533244       -0.74679520068360        2.05711471726519
H            4.07317021789311       -0.89854102666810        0.48296182324664
H            2.79431561135744        1.61742808358668       -0.34632501316720
H            3.64213545774264        1.95662988249852       -2.63850992562762
H            3.26082512525260        0.24807969191817       -4.36706969276870
H            2.04358129344008       -1.82455238029919       -3.81768017155577
H            1.19970850889522       -2.19580830749790       -1.49169257691947
H           -3.63538921271388        0.02878023277737       -2.87816279957621
H           -4.53304713650785       -0.18107375441259       -1.36379851442291
H           -4.62367237999833       -1.41600211017965       -2.62552037010248
H           -2.66748901270010       -3.07112409954937       -2.92127490041761
H           -1.69032524172558       -1.66689534617485       -3.39845776639260
H           -1.14130727045215       -2.72333783192040       -2.07198236959026
H           -3.51554999947240       -1.56491663626053        0.46912076341052
H           -3.72532974369404       -3.02425789370889       -0.51457829418393
H           -2.10434272681442       -2.63119227812102        0.11547514655600

          :  Hamiltonian                  GFN2-xTB          :
         :: total energy             -79.959851655064 Eh    ::
         :: gradient norm              0.000173943527 Eh/a0 ::
         :: HOMO-LUMO gap              1.849297937983 eV    ::
         :: SCC energy               -81.110440398578 Eh    ::
         :: -> dispersion             -0.081087809153 Eh    ::
         :: repulsion energy           1.148230641242 Eh    ::

    * Orbital Energies and Occupations

         #    Occupation            Energy/Eh            Energy/eV
      -------------------------------------------------------------
         1        2.0000           -0.7229509             -19.6725
       ...           ...                  ...                  ...
        63        2.0000           -0.4070642             -11.0768
        64        2.0000           -0.4060704             -11.0497
        65        2.0000           -0.4036541             -10.9840
        66        2.0000           -0.4007103             -10.9039
        67        2.0000           -0.3982052             -10.8357
        68        2.0000           -0.3847607             -10.4699
        69        2.0000           -0.3748740             -10.2008
        70        2.0000           -0.3489164              -9.4945
        71        2.0000           -0.3287904              -8.9468
        72        2.0000           -0.3237615              -8.8100
        73        2.0000           -0.3200543              -8.7091
        74        2.0000           -0.3192010              -8.6859
        75        2.0000           -0.3061178              -8.3299 (HOMO)
        76                         -0.2381573              -6.4806 (LUMO)
        77                         -0.2326148              -6.3298
        78                         -0.2256664              -6.1407
        79                         -0.2230173              -6.0686
        80                         -0.2069579              -5.6316
        81                         -0.1713086              -4.6615
        82                         -0.1560555              -4.2465
        83                         -0.1464932              -3.9863
        84                         -0.1267191              -3.4482
        85                         -0.1014347              -2.7602
        86                         -0.0841703              -2.2904
       ...                                ...                  ...
       153                          2.9897724              81.3558
      -------------------------------------------------------------
                  HL-Gap            0.0679604 Eh            1.8493 eV

     #   Z          covCN         q      C6AA      α(0)
     1   6 C        2.837    -0.094    30.354     9.029
     2   6 C        2.885    -0.036    28.896     8.813
     3   6 C        3.811     0.016    20.291     6.412
     4   7 N        2.731    -0.265    26.869     7.699
     5   6 C        3.896     0.059    19.543     6.284
     6   6 C        3.755    -0.118    22.818     6.811
     7   6 C        3.751    -0.092    22.311     6.736
     8  15 P        4.090     0.167   153.020    22.221
     9   6 C        2.916    -0.015    28.398     8.739
    10   6 C        2.996    -0.033    28.803     8.804
    11   6 C        2.918    -0.030    28.743     8.792
    12   6 C        2.920    -0.030    28.758     8.794
    13   6 C        2.919    -0.028    28.710     8.787
    14   6 C        2.982    -0.030    28.744     8.795
    15   6 C        2.922     0.007    27.876     8.658
    16   6 C        2.957    -0.029    28.726     8.791
    17   6 C        2.919    -0.026    28.658     8.779
    18   6 C        2.922    -0.025    28.630     8.775
    19   6 C        2.916    -0.027    28.664     8.779
    20   6 C        3.063    -0.002    28.020     8.680
    21  28 Ni       2.131    -0.822   201.315    29.276
    22  16 S        3.999     0.708   115.464    18.085
    23   8 O        0.860    -0.567    25.324     6.747
    24   6 C        3.912    -0.019    20.857     6.491
    25   6 C        3.770    -0.105    22.546     6.767
    26   6 C        3.876    -0.096    22.278     6.711
    27   6 C        3.847    -0.096    22.298     6.717
    28   1 H        0.926     0.033     2.540     2.492
    29   1 H        0.926     0.037     2.493     2.469
    30   1 H        0.925     0.048     2.339     2.392
    31   1 H        0.924     0.028     2.616     2.529
    32   1 H        0.924     0.059     2.213     2.327
    33   1 H        0.924     0.033     2.538     2.491
    34   1 H        0.925     0.048     2.340     2.392
    35   1 H        0.924     0.138     1.478     1.901
    36   1 H        0.925     0.049     2.329     2.387
    37   1 H        0.925     0.057     2.238     2.340
    38   1 H        0.925     0.056     2.242     2.342
    39   1 H        0.925     0.035     2.510     2.478
    40   1 H        0.926     0.031     2.571     2.507
    41   1 H        0.926     0.031     2.565     2.505
    42   1 H        0.926     0.032     2.552     2.498
    43   1 H        0.926     0.038     2.472     2.459
    44   1 H        0.925     0.039     2.465     2.455
    45   1 H        0.926     0.035     2.511     2.478
    46   1 H        0.926     0.036     2.496     2.471
    47   1 H        0.926     0.040     2.453     2.449
    48   1 H        0.943     0.140     1.461     1.889
    49   1 H        0.925     0.048     2.349     2.397
    50   1 H        0.925     0.034     2.537     2.491
    51   1 H        0.924     0.036     2.499     2.472
    52   1 H        0.925     0.039     2.457     2.451
    53   1 H        0.925     0.049     2.332     2.388
    54   1 H        0.927     0.116     1.645     2.005
    55   1 H        0.925     0.054     2.265     2.353
    56   1 H        0.925     0.046     2.371     2.408
    57   1 H        1.115     0.162     1.305     1.784

Wiberg/Mayer (AO) data.
largest (>0.10) Wiberg bond orders for each atom

     #   Z sym  total        # sym  WBO       # sym  WBO       # sym  WBO
 ---------------------------------------------------------------------------
     1   6 C    3.990 --     2 C    1.978    29 H    0.977    28 H    0.975
     2   6 C    3.989 --     1 C    1.978     3 C    1.013    30 H    0.963
     3   6 C    3.981 --     2 C    1.013     4 N    0.986    31 H    0.966
                            32 H    0.955
     4   7 N    3.218 --    22 S    1.020     3 C    0.986     5 C    0.984
     5   6 C    3.979 --     6 C    1.002     4 N    0.984     7 C    0.976
                            33 H    0.959
     6   6 C    3.992 --     5 C    1.002    34 H    0.983    36 H    0.978
                            35 H    0.865
     7   6 C    3.986 --     8 P    0.990     5 C    0.976    37 H    0.951
                            38 H    0.948
     8  15 P    4.099 --     9 C    0.993     7 C    0.990    15 C    0.978
                            21 Ni   0.761
     9   6 C    3.974 --    14 C    1.392    10 C    1.388     8 P    0.993
                            12 C    0.104
    10   6 C    3.991 --    11 C    1.453     9 C    1.388    39 H    0.958
                            13 C    0.107
    11   6 C    3.991 --    10 C    1.453    12 C    1.431    40 H    0.970
                            14 C    0.107
    12   6 C    3.978 --    13 C    1.435    11 C    1.431    41 H    0.971
                             9 C    0.104
    13   6 C    3.991 --    14 C    1.449    12 C    1.435    42 H    0.970
                            10 C    0.107
    14   6 C    3.990 --    13 C    1.449     9 C    1.392    43 H    0.961
                            11 C    0.107
    15   6 C    3.982 --    16 C    1.400    20 C    1.384     8 P    0.978
                            18 C    0.108
    16   6 C    3.991 --    17 C    1.443    15 C    1.400    44 H    0.964
                            19 C    0.108
    17   6 C    3.991 --    16 C    1.443    18 C    1.438    45 H    0.970
                            20 C    0.107
    18   6 C    3.986 --    17 C    1.438    19 C    1.431    46 H    0.971
                            15 C    0.108
    19   6 C    3.991 --    20 C    1.446    18 C    1.431    47 H    0.969
                            16 C    0.108
    20   6 C    3.990 --    19 C    1.446    15 C    1.384    48 H    0.815
                            21 Ni   0.152    17 C    0.107
    21  28 Ni   2.214 --     8 P    0.761    22 S    0.269    27 C    0.166
                            20 C    0.152    57 H    0.150    48 H    0.132
    22  16 S    4.044 --    23 O    1.753     4 N    1.020    24 C    0.857
                            21 Ni   0.269
    23   8 O    1.963 --    22 S    1.753
    24   6 C    3.982 --    25 C    1.009    27 C    1.001    26 C    0.996
                            22 S    0.857
    25   6 C    3.995 --    24 C    1.009    50 H    0.984    49 H    0.980
                            51 H    0.979
    26   6 C    3.995 --    24 C    0.996    53 H    0.982    52 H    0.980
                            54 H    0.872
    27   6 C    3.995 --    24 C    1.001    56 H    0.980    55 H    0.977
                            57 H    0.805    21 Ni   0.166
    28   1 H    0.999 --     1 C    0.975
    29   1 H    0.998 --     1 C    0.977
    30   1 H    0.998 --     2 C    0.963
    31   1 H    0.999 --     3 C    0.966
    32   1 H    0.996 --     3 C    0.955
    33   1 H    0.997 --     5 C    0.959
    34   1 H    0.997 --     6 C    0.983
    35   1 H    0.981 --     6 C    0.865
    36   1 H    0.997 --     6 C    0.978
    37   1 H    0.996 --     7 C    0.951
    38   1 H    0.997 --     7 C    0.948
    39   1 H    0.999 --    10 C    0.958
    40   1 H    0.998 --    11 C    0.970
    41   1 H    0.998 --    12 C    0.971
    42   1 H    0.998 --    13 C    0.970
    43   1 H    0.998 --    14 C    0.961
    44   1 H    0.998 --    16 C    0.964
    45   1 H    0.998 --    17 C    0.970
    46   1 H    0.998 --    18 C    0.971
    47   1 H    0.998 --    19 C    0.969
    48   1 H    0.980 --    20 C    0.815    21 Ni   0.132
    49   1 H    0.998 --    25 C    0.980
    50   1 H    0.999 --    25 C    0.984
    51   1 H    0.998 --    25 C    0.979
    52   1 H    0.998 --    26 C    0.980
    53   1 H    0.998 --    26 C    0.982
    54   1 H    0.986 --    26 C    0.872
    55   1 H    0.997 --    27 C    0.977
    56   1 H    0.997 --    27 C    0.980
    57   1 H    0.973 --    27 C    0.805    21 Ni   0.150
 ---------------------------------------------------------------------------

molecular dipole:
                 x           y           z       tot (Debye)
 q only:        0.229      -0.129       0.979
   full:       -0.364       0.227       0.539       1.751

           -------------------------------------------------
          | TOTAL ENERGY              -79.959851655064 Eh   |
          | GRADIENT NORM               0.000173943527 Eh/α |
          | HOMO-LUMO GAP               1.849297937983 eV   |
           -------------------------------------------------

 * finished run on 2024/03/27 at 14:22:33.120
