   * xtb version 6.6.1 (8d0f1dd) compiled by 'stahn@M-Bot' on 2023-08-01
          program call               : /home/echo/Downloads/xtb-661/bin/xtb rct_2_0.xyz --opt --gfn 2 --charge 0

   ID    Z sym.   atoms
    1    6 C      1, 3-9, 13-15, 17-24
    2    8 O      2, 11, 12, 16
    3    5 B      10
    4    1 H      25-43

          :  Hamiltonian                  GFN2-xTB          :
 * total energy  :   -67.9018795 Eh     change       -0.4941683E-09 Eh
 * total energy  :   -67.9340695 Eh     change       -0.3218994E-01 Eh
 * total energy  :   -67.9439201 Eh     change       -0.9850651E-02 Eh
 * total energy  :   -67.9455044 Eh     change       -0.1584302E-02 Eh
 * total energy  :   -67.9467430 Eh     change       -0.1238604E-02 Eh
 * total energy  :   -67.9469528 Eh     change       -0.2097681E-03 Eh
 * total energy  :   -67.9473530 Eh     change       -0.4001522E-03 Eh
 * total energy  :   -67.9475384 Eh     change       -0.1854236E-03 Eh
 * total energy  :   -67.9477132 Eh     change       -0.1748352E-03 Eh
 * total energy  :   -67.9478149 Eh     change       -0.1016882E-03 Eh
 * total energy  :   -67.9493313 Eh     change       -0.1152281E-03 Eh
 * total energy  :   -67.9493737 Eh     change       -0.4231507E-04 Eh
 * total energy  :   -67.9493978 Eh     change       -0.2416733E-04 Eh
 * total energy  :   -67.9494124 Eh     change       -0.1461451E-04 Eh
 * total energy  :   -67.9493927 Eh     change        0.1972592E-04 Eh
 * total energy  :   -67.9494286 Eh     change       -0.3587843E-04 Eh
 * total energy  :   -67.9494347 Eh     change       -0.6138659E-05 Eh
 * total energy  :   -67.9494382 Eh     change       -0.3448291E-05 Eh
 * total energy  :   -67.9494409 Eh     change       -0.2683058E-05 Eh
   *** GEOMETRY OPTIMIZATION CONVERGED AFTER 36 ITERATIONS ***

 final structure:
================
43
 xtb: 6.6.1 (8d0f1dd)
C           -0.28871826291054       -3.73176532352067       -1.73092891068361
O           -0.08819173531080       -2.59039418157367       -0.93847229064837
C           -1.12544659273558       -1.73795933882358       -0.73291148923541
C           -2.37172113282768       -1.92327616231683       -1.28291262877218
C           -3.42173742737475       -1.02395779662041       -1.03871690922120
C           -4.76740223893724       -1.29914386473317       -1.63793229738168
C           -3.19166926523631        0.07394185918038       -0.25733309922675
C           -1.92435946647322        0.32619056888827        0.31179884058513
C           -1.71914225006688        1.48607495279839        1.11156473575141
B           -2.81236139523159        2.62726186433121        1.30781170644230
O           -3.07702529348470        3.14720388791174        2.53038263837546
O           -3.48512593468469        3.19250173095061        0.27635924497447
C           -0.48713414737435        1.64854063020623        1.70187754734948
C            0.55714284597109        0.74216704674462        1.51638264805113
C            0.38951665535707       -0.37108055506037        0.72305085574654
O            1.36291517378989       -1.28926005401334        0.50048461770903
C            2.63119730410289       -1.10646502702851        1.08399056464629
C            3.39664493738959        0.07897333634259        0.54509529207525
C            3.14496168406111        0.55213773175266       -0.73524327376436
C            3.85081754316790        1.63372748308931       -1.23076402622980
C            4.82094444095616        2.24510876010685       -0.45549210650228
C            5.08255115779675        1.77142969559431        0.81913189495291
C            4.37119935995417        0.69546802355662        1.31894296994046
C           -0.87124702120898       -0.60368744388392        0.09827713030464
H           -1.05562643771139       -4.39005311926667       -1.30884552385204
H            0.66732087420310       -4.25336316517847       -1.73656175927170
H           -0.56171403874340       -3.46991078527103       -2.75907286733052
H           -2.57528771947056       -2.77628603228449       -1.91086053495469
H           -5.18465551202325       -2.21550927482946       -1.22134961788338
H           -4.68523561484498       -1.43189703142675       -2.71603921443137
H           -5.45634468589761       -0.48313833137146       -1.43683556269340
H           -3.99795820806569        0.75832150580529       -0.04237757963634
H           -2.59339069961807        2.75059726480112        3.25259149078769
H           -3.27514756778304        2.84204177751337       -0.58724271844913
H           -0.30086690825405        2.52036257902196        2.31547367487217
H            1.50300995864528        0.94467139391254        1.99214515395264
H            3.17150004470295       -2.02814097729815        0.83553512844154
H            2.55322685133393       -1.04482225586233        2.17918392729368
H            2.38877520242770        0.07015145743809       -1.33712506371020
H            3.64316370850609        1.99892200932002       -2.22577046381463
H            5.37193653352646        3.08944541668654       -0.84249886147842
H            5.83885660923924        2.24426727219719        1.42828189337753
H            4.57182667113682        0.33060347221279        2.31692584354143

          :  Hamiltonian                  GFN2-xTB          :
         :: total energy             -67.949440858173 Eh    ::
         :: gradient norm              0.000910473333 Eh/a0 ::
         :: HOMO-LUMO gap              2.966907276106 eV    ::
         :: SCC energy               -68.944817391732 Eh    ::
         :: -> dispersion             -0.047242252937 Eh    ::
         :: repulsion energy           0.994936378788 Eh    ::

    * Orbital Energies and Occupations

         #    Occupation            Energy/Eh            Energy/eV
      -------------------------------------------------------------
         1        2.0000           -0.7097776             -19.3140
       ...           ...                  ...                  ...
        49        2.0000           -0.4446247             -12.0989
        50        2.0000           -0.4416074             -12.0167
        51        2.0000           -0.4305283             -11.7153
        52        2.0000           -0.4287781             -11.6676
        53        2.0000           -0.4246251             -11.5546
        54        2.0000           -0.4212043             -11.4616
        55        2.0000           -0.4074522             -11.0873
        56        2.0000           -0.4059465             -11.0464
        57        2.0000           -0.4007773             -10.9057
        58        2.0000           -0.3908069             -10.6344
        59        2.0000           -0.3898577             -10.6086
        60        2.0000           -0.3857841             -10.4977
        61        2.0000           -0.3513352              -9.5603 (HOMO)
        62                         -0.2423033              -6.5934 (LUMO)
        63                         -0.2267743              -6.1708
        64                         -0.2251823              -6.1275
        65                         -0.2208244              -6.0089
        66                         -0.1848507              -5.0300
        67                         -0.1419599              -3.8629
        68                         -0.1208431              -3.2883
        69                         -0.0969968              -2.6394
        70                         -0.0471894              -1.2841
        71                          0.0258136               0.7024
        72                          0.0423642               1.1528
       ...                                ...                  ...
       115                          0.7005759              19.0636
      -------------------------------------------------------------
                  HL-Gap            0.1090318 Eh            2.9669 eV

     #   Z          covCN         q      C6AA      α(0)
     1   6 C        3.644     0.038    20.276     6.473
     2   8 O        1.705    -0.251    18.151     5.752
     3   6 C        2.859     0.142    24.901     8.179
     4   6 C        2.921    -0.087    30.192     9.011
     5   6 C        2.961     0.015    27.682     8.630
     6   6 C        3.759    -0.110    22.659     6.786
     7   6 C        2.925    -0.075    29.870     8.963
     8   6 C        2.986     0.004    27.927     8.669
     9   6 C        2.882    -0.126    31.197     9.157
    10   5 B        2.476     0.434    17.404     7.370
    11   8 O        1.593    -0.456    22.002     6.330
    12   8 O        1.593    -0.458    22.035     6.335
    13   6 C        2.921    -0.039    28.957     8.825
    14   6 C        2.911    -0.077    29.928     8.971
    15   6 C        2.860     0.147    24.800     8.163
    16   8 O        1.705    -0.251    18.164     5.754
    17   6 C        3.699     0.076    19.472     6.311
    18   6 C        2.969     0.002    27.990     8.678
    19   6 C        2.924    -0.030    28.746     8.792
    20   6 C        2.920    -0.029    28.717     8.788
    21   6 C        2.920    -0.031    28.779     8.797
    22   6 C        2.920    -0.029    28.718     8.788
    23   6 C        2.924    -0.040    28.987     8.829
    24   6 C        2.980    -0.030    28.742     8.794
    25   1 H        0.924     0.039     2.461     2.453
    26   1 H        0.925     0.062     2.181     2.309
    27   1 H        0.924     0.038     2.469     2.458
    28   1 H        0.926     0.033     2.545     2.495
    29   1 H        0.925     0.047     2.359     2.402
    30   1 H        0.925     0.045     2.385     2.415
    31   1 H        0.925     0.042     2.419     2.432
    32   1 H        0.926     0.036     2.508     2.476
    33   1 H        0.806     0.302     0.713     1.327
    34   1 H        0.806     0.305     0.705     1.319
    35   1 H        0.925     0.020     2.734     2.586
    36   1 H        0.926     0.029     2.593     2.518
    37   1 H        0.924     0.060     2.204     2.322
    38   1 H        0.923     0.033     2.538     2.492
    39   1 H        0.926     0.043     2.403     2.424
    40   1 H        0.926     0.033     2.542     2.493
    41   1 H        0.926     0.033     2.550     2.497
    42   1 H        0.926     0.033     2.544     2.494
    43   1 H        0.925     0.027     2.635     2.539

Wiberg/Mayer (AO) data.
largest (>0.10) Wiberg bond orders for each atom

     #   Z sym  total        # sym  WBO       # sym  WBO       # sym  WBO
 ---------------------------------------------------------------------------
     1   6 C    3.949 --     2 O    0.988    26 H    0.979    25 H    0.975
                            27 H    0.975
     2   8 O    2.259 --     3 C    1.074     1 C    0.988
     3   6 C    3.934 --     4 C    1.467    24 C    1.215     2 O    1.074
     4   6 C    3.981 --     3 C    1.467     5 C    1.304    28 H    0.964
     5   6 C    3.988 --     7 C    1.520     4 C    1.304     6 C    1.025
     6   6 C    3.996 --     5 C    1.025    31 H    0.986    30 H    0.975
                            29 H    0.971
     7   6 C    3.987 --     5 C    1.520     8 C    1.277    32 H    0.962
     8   6 C    3.987 --     7 C    1.277    24 C    1.271     9 C    1.250
     9   6 C    3.958 --    13 C    1.510     8 C    1.250    10 B    0.955
    10   5 B    3.379 --    11 O    1.181    12 O    1.179     9 C    0.955
    11   8 O    2.172 --    10 B    1.181    33 H    0.889
    12   8 O    2.173 --    10 B    1.179    34 H    0.886
    13   6 C    3.991 --     9 C    1.510    14 C    1.348    35 H    0.969
    14   6 C    3.982 --    15 C    1.445    13 C    1.348    36 H    0.963
    15   6 C    3.935 --    14 C    1.445    24 C    1.224    16 O    1.076
    16   8 O    2.264 --    15 C    1.076    17 C    0.975
    17   6 C    3.948 --    18 C    0.993    16 O    0.975    38 H    0.960
                            37 H    0.953
    18   6 C    3.986 --    19 C    1.416    23 C    1.411    17 C    0.993
                            21 C    0.110
    19   6 C    3.992 --    20 C    1.443    18 C    1.416    39 H    0.968
                            22 C    0.111
    20   6 C    3.992 --    19 C    1.443    21 C    1.441    40 H    0.971
                            23 C    0.112
    21   6 C    3.992 --    20 C    1.441    22 C    1.437    41 H    0.971
                            18 C    0.110
    22   6 C    3.992 --    23 C    1.447    21 C    1.437    42 H    0.971
                            19 C    0.111
    23   6 C    3.991 --    22 C    1.447    18 C    1.411    43 H    0.969
                            20 C    0.112
    24   6 C    3.982 --     8 C    1.271    15 C    1.224     3 C    1.215
    25   1 H    0.998 --     1 C    0.975
    26   1 H    0.996 --     1 C    0.979
    27   1 H    0.998 --     1 C    0.975
    28   1 H    0.998 --     4 C    0.964
    29   1 H    0.996 --     6 C    0.971
    30   1 H    0.996 --     6 C    0.975
    31   1 H    0.998 --     6 C    0.986
    32   1 H    0.998 --     7 C    0.962
    33   1 H    0.908 --    11 O    0.889
    34   1 H    0.907 --    12 O    0.886
    35   1 H    0.999 --    13 C    0.969
    36   1 H    0.998 --    14 C    0.963
    37   1 H    0.996 --    17 C    0.953
    38   1 H    0.998 --    17 C    0.960
    39   1 H    0.998 --    19 C    0.968
    40   1 H    0.999 --    20 C    0.971
    41   1 H    0.998 --    21 C    0.971
    42   1 H    0.999 --    22 C    0.971
    43   1 H    0.999 --    23 C    0.969
 ---------------------------------------------------------------------------

molecular dipole:
                 x           y           z       tot (Debye)
 q only:        0.593      -0.875      -0.382
   full:        0.838      -1.195      -0.399       3.846

           -------------------------------------------------
          | TOTAL ENERGY              -67.949440858173 Eh   |
          | GRADIENT NORM               0.000910473333 Eh/α |
          | HOMO-LUMO GAP               2.966907276106 eV   |
           -------------------------------------------------

 * finished run on 2024/03/26 at 16:11:07.457
